 Title="HCELL data"
 Variables="X","Y","U","V","MAG"
 Zone N= 17865, E= 34080, F=FEPOINT, ET=TRIANGLE
    0.00000        0.00000        0.00000        0.00000    
    0.00000    
    0.00000       0.250000        0.00000        0.00000    
    0.00000    
    0.00000       0.500000        0.00000        0.00000    
    0.00000    
    0.00000       0.750000        0.00000        0.00000    
    0.00000    
    0.00000        1.00000        0.00000        0.00000    
    0.00000    
    0.00000        1.25000        0.00000        0.00000    
    0.00000    
    0.00000        1.50000        0.00000        0.00000    
    0.00000    
    0.00000        1.75000        0.00000        0.00000    
    0.00000    
    0.00000        2.00000        0.00000        0.00000    
    0.00000    
    0.00000        2.25000       0.207737E-01    0.00000    
   0.207737E-01
    0.00000        2.50000       0.276983E-01    0.00000    
   0.276983E-01
    0.00000        2.75000       0.207737E-01    0.00000    
   0.207737E-01
    0.00000        3.00000        0.00000        0.00000    
    0.00000    
    0.00000        3.25000        0.00000        0.00000    
    0.00000    
    0.00000        3.50000        0.00000        0.00000    
    0.00000    
    0.00000        3.75000        0.00000        0.00000    
    0.00000    
    0.00000        4.00000        0.00000        0.00000    
    0.00000    
    0.00000        4.25000        0.00000        0.00000    
    0.00000    
    0.00000        4.50000        0.00000        0.00000    
    0.00000    
    0.00000        4.75000        0.00000        0.00000    
    0.00000    
    0.00000        5.00000        0.00000        0.00000    
    0.00000    
    0.00000        6.00000        0.00000        0.00000    
    0.00000    
    0.00000        6.25000        0.00000        0.00000    
    0.00000    
    0.00000        6.50000        0.00000        0.00000    
    0.00000    
    0.00000        6.75000        0.00000        0.00000    
    0.00000    
    0.00000        7.00000        0.00000        0.00000    
    0.00000    
    0.00000        7.25000        0.00000        0.00000    
    0.00000    
    0.00000        7.50000        0.00000        0.00000    
    0.00000    
    0.00000        7.75000        0.00000        0.00000    
    0.00000    
    0.00000        8.00000        0.00000        0.00000    
    0.00000    
    0.00000        8.25000       0.656477E-01    0.00000    
   0.656477E-01
    0.00000        8.50000       0.875303E-01    0.00000    
   0.875303E-01
    0.00000        8.75000       0.656477E-01    0.00000    
   0.656477E-01
    0.00000        9.00000        0.00000        0.00000    
    0.00000    
    0.00000        9.25000        0.00000        0.00000    
    0.00000    
    0.00000        9.50000        0.00000        0.00000    
    0.00000    
    0.00000        9.75000        0.00000        0.00000    
    0.00000    
    0.00000        10.0000        0.00000        0.00000    
    0.00000    
    0.00000        10.2500        0.00000        0.00000    
    0.00000    
    0.00000        10.5000        0.00000        0.00000    
    0.00000    
    0.00000        10.7500        0.00000        0.00000    
    0.00000    
    0.00000        11.0000        0.00000        0.00000    
    0.00000    
   0.250000        0.00000        0.00000        0.00000    
    0.00000    
   0.250000       0.250000      -0.258313E-04   0.258313E-04
   0.365310E-04
   0.250000       0.500000      -0.190423E-04   0.555255E-04
   0.587000E-04
   0.250000       0.750000       0.169852E-04   0.769090E-04
   0.787622E-04
   0.250000        1.00000       0.344876E-04   0.846027E-04
   0.913620E-04
   0.250000        1.25000      -0.557160E-04  -0.328552E-04
   0.646818E-04
   0.250000        1.50000       0.359034E-04   0.107676E-03
   0.113504E-03
   0.250000        1.75000       0.667275E-03  -0.982118E-03
   0.118735E-02
   0.250000        2.00000       0.385559E-02  -0.460481E-02
   0.600582E-02
   0.250000        2.25000       0.131248E-01  -0.425957E-02
   0.137987E-01
   0.250000        2.50000       0.179304E-01   0.151247E-02
   0.179941E-01
   0.250000        2.75000       0.131517E-01   0.382296E-02
   0.136961E-01
   0.250000        3.00000       0.409893E-02   0.227136E-02
   0.468618E-02
   0.250000        3.25000       0.957640E-03   0.137223E-02
   0.167335E-02
   0.250000        3.50000      -0.641851E-04   0.461643E-03
   0.466084E-03
   0.250000        3.75000      -0.115804E-03  -0.159497E-03
   0.197104E-03
   0.250000        4.00000       0.847270E-04  -0.638074E-04
   0.106066E-03
   0.250000        4.25000       0.425149E-04  -0.597432E-04
   0.733264E-04
   0.250000        4.50000      -0.282474E-04  -0.664966E-04
   0.722476E-04
   0.250000        4.75000      -0.362181E-04  -0.247481E-04
   0.438660E-04
   0.250000        5.00000        0.00000        0.00000    
    0.00000    
   0.250000        6.00000        0.00000        0.00000    
    0.00000    
   0.250000        6.25000      -0.135990E-03   0.135990E-03
   0.192320E-03
   0.250000        6.50000      -0.183570E-03   0.411533E-03
   0.450619E-03
   0.250000        6.75000      -0.108258E-03   0.750692E-03
   0.758458E-03
   0.250000        7.00000      -0.867582E-04   0.109807E-02
   0.110149E-02
   0.250000        7.25000      -0.440960E-03   0.115556E-02
   0.123684E-02
   0.250000        7.50000      -0.276132E-03   0.244275E-02
   0.245830E-02
   0.250000        7.75000       0.150438E-02  -0.738706E-03
   0.167596E-02
   0.250000        8.00000       0.125825E-01  -0.122908E-01
   0.175893E-01
   0.250000        8.25000       0.425474E-01  -0.118604E-01
   0.441696E-01
   0.250000        8.50000       0.580869E-01   0.359132E-02
   0.581978E-01
   0.250000        8.75000       0.430705E-01   0.962618E-02
   0.441331E-01
   0.250000        9.00000       0.121143E-01   0.455924E-02
   0.129439E-01
   0.250000        9.25000       0.222356E-02   0.174548E-02
   0.282682E-02
   0.250000        9.50000      -0.453131E-03  -0.271500E-03
   0.528243E-03
   0.250000        9.75000      -0.554218E-03  -0.180132E-02
   0.188466E-02
   0.250000        10.0000       0.605604E-04  -0.109448E-02
   0.109616E-02
   0.250000        10.2500      -0.533005E-04  -0.690211E-03
   0.692266E-03
   0.250000        10.5000      -0.226070E-03  -0.446901E-03
   0.500828E-03
   0.250000        10.7500      -0.174440E-03  -0.133422E-03
   0.219615E-03
   0.250000        11.0000        0.00000        0.00000    
    0.00000    
   0.500000        0.00000        0.00000        0.00000    
    0.00000    
   0.500000       0.250000      -0.596724E-04   0.159404E-04
   0.617648E-04
   0.500000       0.500000      -0.320484E-04   0.305829E-04
   0.442992E-04
   0.500000       0.750000       0.504425E-04  -0.260214E-04
   0.567588E-04
   0.500000        1.00000       0.137246E-03  -0.242150E-03
   0.278340E-03
   0.500000        1.25000       0.242823E-03  -0.589467E-03
   0.637522E-03
   0.500000        1.50000       0.644958E-03  -0.779468E-03
   0.101170E-02
   0.500000        1.75000       0.206699E-02  -0.199594E-02
   0.287336E-02
   0.500000        2.00000       0.631277E-02  -0.422849E-02
   0.759810E-02
   0.500000        2.25000       0.119512E-01  -0.336023E-02
   0.124146E-01
   0.500000        2.50000       0.136307E-01   0.624652E-03
   0.136450E-01
   0.500000        2.75000       0.105452E-01   0.307430E-02
   0.109842E-01
   0.500000        3.00000       0.614692E-02   0.315742E-02
   0.691042E-02
   0.500000        3.25000       0.262798E-02   0.240112E-02
   0.355972E-02
   0.500000        3.50000       0.797856E-03   0.121727E-02
   0.145544E-02
   0.500000        3.75000       0.329532E-03   0.422240E-03
   0.535610E-03
   0.500000        4.00000       0.142661E-03   0.108923E-03
   0.179489E-03
   0.500000        4.25000       0.178922E-04  -0.180764E-04
   0.254340E-04
   0.500000        4.50000      -0.413743E-04  -0.311301E-04
   0.517775E-04
   0.500000        4.75000      -0.550266E-04  -0.121331E-04
   0.563484E-04
   0.500000        5.00000        0.00000        0.00000    
    0.00000    
   0.500000        6.00000        0.00000        0.00000    
    0.00000    
   0.500000        6.25000      -0.414845E-03   0.153843E-03
   0.442452E-03
   0.500000        6.50000      -0.504627E-03   0.473870E-03
   0.692244E-03
   0.500000        6.75000      -0.368670E-03   0.674188E-03
   0.768405E-03
   0.500000        7.00000      -0.199795E-03   0.373799E-03
   0.423844E-03
   0.500000        7.25000       0.384362E-04  -0.280710E-03
   0.283330E-03
   0.500000        7.50000       0.118720E-02  -0.354814E-03
   0.123909E-02
   0.500000        7.75000       0.587429E-02  -0.425246E-02
   0.725195E-02
   0.500000        8.00000       0.207817E-01  -0.115016E-01
   0.237522E-01
   0.500000        8.25000       0.398424E-01  -0.953796E-02
   0.409681E-01
   0.500000        8.50000       0.459256E-01   0.149366E-02
   0.459499E-01
   0.500000        8.75000       0.358616E-01   0.839309E-02
   0.368307E-01
   0.500000        9.00000       0.197171E-01   0.764617E-02
   0.211478E-01
   0.500000        9.25000       0.761447E-02   0.504126E-02
   0.913205E-02
   0.500000        9.50000       0.165725E-02   0.162095E-02
   0.231817E-02
   0.500000        9.75000       0.198267E-03  -0.516641E-03
   0.553378E-03
   0.500000        10.0000      -0.245276E-03  -0.930417E-03
   0.962204E-03
   0.500000        10.2500      -0.524488E-03  -0.825082E-03
   0.977675E-03
   0.500000        10.5000      -0.555490E-03  -0.467636E-03
   0.726122E-03
   0.500000        10.7500      -0.405883E-03  -0.143582E-03
   0.430531E-03
   0.500000        11.0000        0.00000        0.00000    
    0.00000    
   0.750000        0.00000        0.00000        0.00000    
    0.00000    
   0.750000       0.250000      -0.655467E-04  -0.138498E-04
   0.669939E-04
   0.750000       0.500000      -0.238804E-05  -0.470538E-04
   0.471144E-04
   0.750000       0.750000       0.156628E-03  -0.200618E-03
   0.254519E-03
   0.750000        1.00000       0.438031E-03  -0.565965E-03
   0.715673E-03
   0.750000        1.25000       0.947693E-03  -0.994668E-03
   0.137386E-02
   0.750000        1.50000       0.182428E-02  -0.140374E-02
   0.230185E-02
   0.750000        1.75000       0.335892E-02  -0.227348E-02
   0.405599E-02
   0.750000        2.00000       0.615799E-02  -0.334127E-02
   0.700606E-02
   0.750000        2.25000       0.957951E-02  -0.240876E-02
   0.987771E-02
   0.750000        2.50000       0.109763E-01   0.403835E-03
   0.109837E-01
   0.750000        2.75000       0.925569E-02   0.225439E-02
   0.952628E-02
   0.750000        3.00000       0.629579E-02   0.272779E-02
   0.686133E-02
   0.750000        3.25000       0.355182E-02   0.249088E-02
   0.433819E-02
   0.750000        3.50000       0.168163E-02   0.162000E-02
   0.233501E-02
   0.750000        3.75000       0.796883E-03   0.895088E-03
   0.119842E-02
   0.750000        4.00000       0.370907E-03   0.456565E-03
   0.588238E-03
   0.750000        4.25000       0.133351E-03   0.173928E-03
   0.219165E-03
   0.750000        4.50000       0.760921E-05   0.671694E-04
   0.675991E-04
   0.750000        4.75000      -0.552808E-04   0.114277E-04
   0.564496E-04
   0.750000        5.00000        0.00000        0.00000    
    0.00000    
   0.750000        6.00000        0.00000        0.00000    
    0.00000    
   0.750000        6.25000      -0.643181E-03   0.668256E-04
   0.646643E-03
   0.750000        6.50000      -0.753431E-03   0.243407E-03
   0.791774E-03
   0.750000        6.75000      -0.474923E-03   0.880483E-04
   0.483016E-03
   0.750000        7.00000       0.287344E-03  -0.744287E-03
   0.797828E-03
   0.750000        7.25000       0.188174E-02  -0.182520E-02
   0.262151E-02
   0.750000        7.50000       0.485027E-02  -0.292906E-02
   0.566608E-02
   0.750000        7.75000       0.104909E-01  -0.599083E-02
   0.120809E-01
   0.750000        8.00000       0.211242E-01  -0.998892E-02
   0.233669E-01
   0.750000        8.25000       0.334608E-01  -0.740872E-02
   0.342712E-01
   0.750000        8.50000       0.384171E-01   0.113794E-02
   0.384340E-01
   0.750000        8.75000       0.319397E-01   0.668424E-02
   0.326316E-01
   0.750000        9.00000       0.205769E-01   0.736049E-02
   0.218537E-01
   0.750000        9.25000       0.105592E-01   0.622097E-02
   0.122555E-01
   0.750000        9.50000       0.413166E-02   0.343714E-02
   0.537444E-02
   0.750000        9.75000       0.124025E-02   0.123964E-02
   0.175355E-02
   0.750000        10.0000       0.240852E-04   0.268223E-03
   0.269302E-03
   0.750000        10.2500      -0.572979E-03  -0.222832E-03
   0.614783E-03
   0.750000        10.5000      -0.740680E-03  -0.183892E-03
   0.763167E-03
   0.750000        10.7500      -0.616958E-03  -0.845159E-04
   0.622720E-03
   0.750000        11.0000        0.00000        0.00000    
    0.00000    
    1.00000        0.00000        0.00000        0.00000    
    0.00000    
    1.00000       0.250000      -0.576030E-05  -0.464068E-04
   0.467629E-04
    1.00000       0.500000       0.124695E-03  -0.131282E-03
   0.181063E-03
    1.00000       0.750000       0.384023E-03  -0.343548E-03
   0.515265E-03
    1.00000        1.00000       0.803275E-03  -0.732715E-03
   0.108725E-02
    1.00000        1.25000       0.149530E-02  -0.119466E-02
   0.191393E-02
    1.00000        1.50000       0.249047E-02  -0.170163E-02
   0.301629E-02
    1.00000        1.75000       0.390649E-02  -0.219031E-02
   0.447863E-02
    1.00000        2.00000       0.609828E-02  -0.231224E-02
   0.652192E-02
    1.00000        2.25000       0.821712E-02  -0.149102E-02
   0.835130E-02
    1.00000        2.50000       0.881069E-02   0.967669E-04
   0.881122E-02
    1.00000        2.75000       0.787175E-02   0.145523E-02
   0.800513E-02
    1.00000        3.00000       0.608016E-02   0.216727E-02
   0.645487E-02
    1.00000        3.25000       0.401848E-02   0.221473E-02
   0.458837E-02
    1.00000        3.50000       0.243597E-02   0.174646E-02
   0.299734E-02
    1.00000        3.75000       0.140392E-02   0.117968E-02
   0.183375E-02
    1.00000        4.00000       0.743821E-03   0.694476E-03
   0.101763E-02
    1.00000        4.25000       0.367949E-03   0.351850E-03
   0.509102E-03
    1.00000        4.50000       0.122740E-03   0.146491E-03
   0.191115E-03
    1.00000        4.75000      -0.638114E-05   0.330226E-04
   0.336334E-04
    1.00000        5.00000        0.00000        0.00000    
    0.00000    
    1.00000        6.00000        0.00000        0.00000    
    0.00000    
    1.00000        6.25000      -0.639149E-03  -0.704173E-04
   0.643016E-03
    1.00000        6.50000      -0.626747E-03  -0.128351E-03
   0.639754E-03
    1.00000        6.75000      -0.501635E-04  -0.575921E-03
   0.578101E-03
    1.00000        7.00000       0.119638E-02  -0.161562E-02
   0.201036E-02
    1.00000        7.25000       0.352390E-02  -0.300540E-02
   0.463145E-02
    1.00000        7.50000       0.711911E-02  -0.469239E-02
   0.852644E-02
    1.00000        7.75000       0.125727E-01  -0.658878E-02
   0.141945E-01
    1.00000        8.00000       0.211998E-01  -0.740068E-02
   0.224544E-01
    1.00000        8.25000       0.292371E-01  -0.495631E-02
   0.296542E-01
    1.00000        8.50000       0.315778E-01   0.269023E-03
   0.315790E-01
    1.00000        8.75000       0.277731E-01   0.465709E-02
   0.281608E-01
    1.00000        9.00000       0.204810E-01   0.654765E-02
   0.215021E-01
    1.00000        9.25000       0.125068E-01   0.637775E-02
   0.140391E-01
    1.00000        9.50000       0.660627E-02   0.459394E-02
   0.804656E-02
    1.00000        9.75000       0.301049E-02   0.271839E-02
   0.405619E-02
    1.00000        10.0000       0.875247E-03   0.133976E-02
   0.160032E-02
    1.00000        10.2500      -0.180081E-03   0.508159E-03
   0.539124E-03
    1.00000        10.5000      -0.677332E-03   0.144227E-03
   0.692517E-03
    1.00000        10.7500      -0.652360E-03   0.724773E-05
   0.652400E-03
    1.00000        11.0000        0.00000        0.00000    
    0.00000    
    1.25000        0.00000        0.00000        0.00000    
    0.00000    
    1.25000       0.250000       0.977594E-04  -0.635008E-04
   0.116573E-03
    1.25000       0.500000       0.321735E-03  -0.188780E-03
   0.373030E-03
    1.25000       0.750000       0.654433E-03  -0.438051E-03
   0.787510E-03
    1.25000        1.00000       0.115776E-02  -0.805193E-03
   0.141023E-02
    1.25000        1.25000       0.191602E-02  -0.119865E-02
   0.226007E-02
    1.25000        1.50000       0.293379E-02  -0.161914E-02
   0.335093E-02
    1.25000        1.75000       0.424461E-02  -0.186013E-02
   0.463430E-02
    1.25000        2.00000       0.576670E-02  -0.168172E-02
   0.600691E-02
    1.25000        2.25000       0.702352E-02  -0.100760E-02
   0.709543E-02
    1.25000        2.50000       0.743859E-02   0.492767E-04
   0.743875E-02
    1.25000        2.75000       0.691317E-02   0.102874E-02
   0.698929E-02
    1.25000        3.00000       0.574063E-02   0.166502E-02
   0.597722E-02
    1.25000        3.25000       0.425180E-02   0.182916E-02
   0.462856E-02
    1.25000        3.50000       0.290532E-02   0.158380E-02
   0.330897E-02
    1.25000        3.75000       0.187876E-02   0.120333E-02
   0.223109E-02
    1.25000        4.00000       0.113781E-02   0.792249E-03
   0.138646E-02
    1.25000        4.25000       0.640262E-03   0.451645E-03
   0.783529E-03
    1.25000        4.50000       0.300770E-03   0.211034E-03
   0.367420E-03
    1.25000        4.75000       0.839815E-04   0.547644E-04
   0.100260E-03
    1.25000        5.00000        0.00000        0.00000    
    0.00000    
    1.25000        6.00000        0.00000        0.00000    
    0.00000    
    1.25000        6.25000      -0.427547E-03  -0.160728E-03
   0.456760E-03
    1.25000        6.50000      -0.159488E-03  -0.442485E-03
   0.470350E-03
    1.25000        6.75000       0.663125E-03  -0.114460E-02
   0.132281E-02
    1.25000        7.00000       0.225669E-02  -0.226117E-02
   0.319461E-02
    1.25000        7.25000       0.492915E-02  -0.356828E-02
   0.608516E-02
    1.25000        7.50000       0.877844E-02  -0.510087E-02
   0.101528E-01
    1.25000        7.75000       0.140293E-01  -0.614238E-02
   0.153150E-01
    1.25000        8.00000       0.203043E-01  -0.577818E-02
   0.211105E-01
    1.25000        8.25000       0.254800E-01  -0.354086E-02
   0.257249E-01
    1.25000        8.50000       0.271240E-01   0.154280E-03
   0.271245E-01
    1.25000        8.75000       0.247180E-01   0.351544E-02
   0.249667E-01
    1.25000        9.00000       0.196891E-01   0.548685E-02
   0.204393E-01
    1.25000        9.25000       0.135547E-01   0.582706E-02
   0.147541E-01
    1.25000        9.50000       0.827449E-02   0.476735E-02
   0.954960E-02
    1.25000        9.75000       0.449419E-02   0.339050E-02
   0.562967E-02
    1.25000        10.0000       0.197170E-02   0.209072E-02
   0.287380E-02
    1.25000        10.2500       0.469174E-03   0.109378E-02
   0.119016E-02
    1.25000        10.5000      -0.320425E-03   0.490062E-03
   0.585519E-03
    1.25000        10.7500      -0.515074E-03   0.115688E-03
   0.527907E-03
    1.25000        11.0000        0.00000        0.00000    
    0.00000    
    1.50000        0.00000        0.00000        0.00000    
    0.00000    
    1.50000       0.250000       0.214594E-03  -0.688930E-04
   0.225381E-03
    1.50000       0.500000       0.522876E-03  -0.225634E-03
   0.569482E-03
    1.50000       0.750000       0.937009E-03  -0.472250E-03
   0.104929E-02
    1.50000        1.00000       0.150876E-02  -0.769818E-03
   0.169380E-02
    1.50000        1.25000       0.226582E-02  -0.108011E-02
   0.251009E-02
    1.50000        1.50000       0.320727E-02  -0.138745E-02
   0.349451E-02
    1.50000        1.75000       0.429512E-02  -0.148141E-02
   0.454342E-02
    1.50000        2.00000       0.539997E-02  -0.123701E-02
   0.553984E-02
    1.50000        2.25000       0.621765E-02  -0.713644E-03
   0.625847E-02
    1.50000        2.50000       0.647765E-02   0.284072E-04
   0.647771E-02
    1.50000        2.75000       0.617025E-02   0.749187E-03
   0.621557E-02
    1.50000        3.00000       0.535114E-02   0.124315E-02
   0.549365E-02
    1.50000        3.25000       0.425121E-02   0.144025E-02
   0.448855E-02
    1.50000        3.50000       0.318393E-02   0.135634E-02
   0.346079E-02
    1.50000        3.75000       0.224073E-02   0.110442E-02
   0.249812E-02
    1.50000        4.00000       0.149510E-02   0.785794E-03
   0.168902E-02
    1.50000        4.25000       0.932230E-03   0.479466E-03
   0.104830E-02
    1.50000        4.50000       0.504457E-03   0.231061E-03
   0.554857E-03
    1.50000        4.75000       0.197628E-03   0.631799E-04
   0.207481E-03
    1.50000        5.00000        0.00000        0.00000    
    0.00000    
    1.50000        6.00000        0.00000        0.00000    
    0.00000    
    1.50000        6.25000      -0.953941E-04  -0.215017E-03
   0.235228E-03
    1.50000        6.50000       0.420289E-03  -0.699701E-03
   0.816226E-03
    1.50000        6.75000       0.153957E-02  -0.150757E-02
   0.215477E-02
    1.50000        7.00000       0.342201E-02  -0.251268E-02
   0.424543E-02
    1.50000        7.25000       0.618941E-02  -0.363842E-02
   0.717962E-02
    1.50000        7.50000       0.988848E-02  -0.481662E-02
   0.109992E-01
    1.50000        7.75000       0.143619E-01  -0.527658E-02
   0.153006E-01
    1.50000        8.00000       0.190767E-01  -0.451566E-02
   0.196038E-01
    1.50000        8.25000       0.225832E-01  -0.264639E-02
   0.227377E-01
    1.50000        8.50000       0.236653E-01   0.103117E-03
   0.236655E-01
    1.50000        8.75000       0.221836E-01   0.274137E-02
   0.223523E-01
    1.50000        9.00000       0.185104E-01   0.444779E-02
   0.190373E-01
    1.50000        9.25000       0.137845E-01   0.502746E-02
   0.146727E-01
    1.50000        9.50000       0.940498E-02   0.456691E-02
   0.104552E-01
    1.50000        9.75000       0.578315E-02   0.358429E-02
   0.680382E-02
    1.50000        10.0000       0.311816E-02   0.245707E-02
   0.396990E-02
    1.50000        10.2500       0.134022E-02   0.144769E-02
   0.197281E-02
    1.50000        10.5000       0.234042E-03   0.683462E-03
   0.722423E-03
    1.50000        10.7500      -0.218514E-03   0.182578E-03
   0.284751E-03
    1.50000        11.0000        0.00000        0.00000    
    0.00000    
    1.75000        0.00000        0.00000        0.00000    
    0.00000    
    1.75000       0.250000       0.330935E-03  -0.634630E-04
   0.336965E-03
    1.75000       0.500000       0.731990E-03  -0.220645E-03
   0.764522E-03
    1.75000       0.750000       0.121684E-02  -0.441324E-03
   0.129440E-02
    1.75000        1.00000       0.180795E-02  -0.683009E-03
   0.193266E-02
    1.75000        1.25000       0.251384E-02  -0.923360E-03
   0.267806E-02
    1.75000        1.50000       0.333165E-02  -0.112736E-02
   0.351722E-02
    1.75000        1.75000       0.422831E-02  -0.114680E-02
   0.438107E-02
    1.75000        2.00000       0.506154E-02  -0.922776E-03
   0.514497E-02
    1.75000        2.25000       0.564139E-02  -0.516413E-03
   0.566497E-02
    1.75000        2.50000       0.583482E-02   0.316054E-04
   0.583491E-02
    1.75000        2.75000       0.560415E-02   0.556050E-03
   0.563167E-02
    1.75000        3.00000       0.501250E-02   0.937867E-03
   0.509948E-02
    1.75000        3.25000       0.419505E-02   0.112267E-02
   0.434267E-02
    1.75000        3.50000       0.332580E-02   0.110217E-02
   0.350367E-02
    1.75000        3.75000       0.250209E-02   0.941951E-03
   0.267353E-02
    1.75000        4.00000       0.178670E-02   0.699100E-03
   0.191861E-02
    1.75000        4.25000       0.119568E-02   0.446363E-03
   0.127628E-02
    1.75000        4.50000       0.710951E-03   0.221189E-03
   0.744564E-03
    1.75000        4.75000       0.318617E-03   0.627400E-04
   0.324736E-03
    1.75000        5.00000        0.00000        0.00000    
    0.00000    
    1.75000        6.00000        0.00000        0.00000    
    0.00000    
    1.75000        6.25000       0.289647E-03  -0.227703E-03
   0.368434E-03
    1.75000        6.50000       0.112833E-02  -0.786452E-03
   0.137537E-02
    1.75000        6.75000       0.251103E-02  -0.159371E-02
   0.297408E-02
    1.75000        7.00000       0.450562E-02  -0.249249E-02
   0.514909E-02
    1.75000        7.25000       0.715475E-02  -0.342487E-02
   0.793223E-02
    1.75000        7.50000       0.104496E-01  -0.425279E-02
   0.112818E-01
    1.75000        7.75000       0.142264E-01  -0.438990E-02
   0.148884E-01
    1.75000        8.00000       0.178533E-01  -0.357595E-02
   0.182079E-01
    1.75000        8.25000       0.204036E-01  -0.200580E-02
   0.205020E-01
    1.75000        8.50000       0.212049E-01   0.143401E-03
   0.212054E-01
    1.75000        8.75000       0.200692E-01   0.219314E-02
   0.201887E-01
    1.75000        9.00000       0.173418E-01   0.362153E-02
   0.177159E-01
    1.75000        9.25000       0.137011E-01   0.425169E-02
   0.143456E-01
    1.75000        9.50000       0.100358E-01   0.407495E-02
   0.108316E-01
    1.75000        9.75000       0.676772E-02   0.340159E-02
   0.757449E-02
    1.75000        10.0000       0.414725E-02   0.247435E-02
   0.482930E-02
    1.75000        10.2500       0.221978E-02   0.155300E-02
   0.270910E-02
    1.75000        10.5000       0.905854E-03   0.769871E-03
   0.118881E-02
    1.75000        10.7500       0.166093E-03   0.217751E-03
   0.273866E-03
    1.75000        11.0000        0.00000        0.00000    
    0.00000    
    2.00000        0.00000        0.00000        0.00000    
    0.00000    
    2.00000       0.250000       0.441698E-03  -0.507805E-04
   0.444608E-03
    2.00000       0.500000       0.913344E-03  -0.193563E-03
   0.933629E-03
    2.00000       0.750000       0.144056E-02  -0.381208E-03
   0.149015E-02
    2.00000        1.00000       0.203562E-02  -0.578616E-03
   0.211626E-02
    2.00000        1.25000       0.269438E-02  -0.755952E-03
   0.279842E-02
    2.00000        1.50000       0.341914E-02  -0.874133E-03
   0.352911E-02
    2.00000        1.75000       0.414933E-02  -0.859021E-03
   0.423731E-02
    2.00000        2.00000       0.478127E-02  -0.682808E-03
   0.482978E-02
    2.00000        2.25000       0.521323E-02  -0.377292E-03
   0.522687E-02
    2.00000        2.50000       0.535167E-02   0.219096E-04
   0.535172E-02
    2.00000        2.75000       0.518536E-02   0.406683E-03
   0.520129E-02
    2.00000        3.00000       0.474290E-02   0.699512E-03
   0.479421E-02
    2.00000        3.25000       0.411232E-02   0.860421E-03
   0.420137E-02
    2.00000        3.50000       0.340287E-02   0.871092E-03
   0.351260E-02
    2.00000        3.75000       0.268135E-02   0.767219E-03
   0.278896E-02
    2.00000        4.00000       0.201651E-02   0.589522E-03
   0.210091E-02
    2.00000        4.25000       0.141982E-02   0.385346E-03
   0.147119E-02
    2.00000        4.50000       0.894988E-03   0.194466E-03
   0.915872E-03
    2.00000        4.75000       0.428045E-03   0.552132E-04
   0.431592E-03
    2.00000        5.00000        0.00000        0.00000    
    0.00000    
    2.00000        6.00000        0.00000        0.00000    
    0.00000    
    2.00000        6.25000       0.714255E-03  -0.205222E-03
   0.743153E-03
    2.00000        6.50000       0.181333E-02  -0.768649E-03
   0.196952E-02
    2.00000        6.75000       0.336497E-02  -0.151952E-02
   0.369215E-02
    2.00000        7.00000       0.539595E-02  -0.231445E-02
   0.587137E-02
    2.00000        7.25000       0.788820E-02  -0.304619E-02
   0.845594E-02
    2.00000        7.50000       0.108380E-01  -0.355442E-02
   0.114059E-01
    2.00000        7.75000       0.139418E-01  -0.352085E-02
   0.143795E-01
    2.00000        8.00000       0.167377E-01  -0.280625E-02
   0.169713E-01
    2.00000        8.25000       0.186534E-01  -0.153768E-02
   0.187167E-01
    2.00000        8.50000       0.192345E-01   0.132087E-03
   0.192350E-01
    2.00000        8.75000       0.184018E-01   0.173439E-02
   0.184833E-01
    2.00000        9.00000       0.163197E-01   0.291768E-02
   0.165785E-01
    2.00000        9.25000       0.134654E-01   0.353207E-02
   0.139210E-01
    2.00000        9.50000       0.104173E-01   0.351449E-02
   0.109941E-01
    2.00000        9.75000       0.750738E-02   0.304840E-02
   0.810268E-02
    2.00000        10.0000       0.503715E-02   0.231321E-02
   0.554291E-02
    2.00000        10.2500       0.306016E-02   0.150109E-02
   0.340850E-02
    2.00000        10.5000       0.157921E-02   0.757967E-03
   0.175169E-02
    2.00000        10.7500       0.568784E-03   0.216170E-03
   0.608478E-03
    2.00000        11.0000        0.00000        0.00000    
    0.00000    
    2.25000        0.00000        0.00000        0.00000    
    0.00000    
    2.25000       0.250000       0.531382E-03  -0.418825E-04
   0.533030E-03
    2.25000       0.500000       0.106157E-02  -0.159887E-03
   0.107354E-02
    2.25000       0.750000       0.161937E-02  -0.309281E-03
   0.164864E-02
    2.25000        1.00000       0.220915E-02  -0.464730E-03
   0.225750E-02
    2.25000        1.25000       0.282695E-02  -0.594993E-03
   0.288889E-02
    2.25000        1.50000       0.345759E-02  -0.666257E-03
   0.352120E-02
    2.25000        1.75000       0.405891E-02  -0.640332E-03
   0.410911E-02
    2.25000        2.00000       0.456172E-02  -0.502302E-03
   0.458929E-02
    2.25000        2.25000       0.489769E-02  -0.272412E-03
   0.490526E-02