 Title="HCELL data"
 Variables="X","Y","U","V"
 Zone N=        4673 , E=        8520 , F=FEPOINT, ET=TRIANGLE
    0.00000        0.00000        0.00000        0.00000    
    0.00000       0.500000        0.00000        0.00000    
    0.00000        1.00000        0.00000        0.00000    
    0.00000        1.50000        0.00000        0.00000    
    0.00000        2.00000        0.00000        0.00000    
    0.00000        2.50000       0.110000        0.00000    
    0.00000        3.00000        0.00000        0.00000    
    0.00000        3.50000        0.00000        0.00000    
    0.00000        4.00000        0.00000        0.00000    
    0.00000        4.50000        0.00000        0.00000    
    0.00000        5.00000        0.00000        0.00000    
    0.00000        6.00000        0.00000        0.00000    
    0.00000        6.50000        0.00000        0.00000    
    0.00000        7.00000        0.00000        0.00000    
    0.00000        7.50000        0.00000        0.00000    
    0.00000        8.00000        0.00000        0.00000    
    0.00000        8.50000       0.120000        0.00000    
    0.00000        9.00000        0.00000        0.00000    
    0.00000        9.50000        0.00000        0.00000    
    0.00000        10.0000        0.00000        0.00000    
    0.00000        10.5000        0.00000        0.00000    
    0.00000        11.0000        0.00000        0.00000    
   0.500000        0.00000        0.00000        0.00000    
   0.500000       0.500000       0.990462E-02  -0.990462E-02
   0.500000        1.00000       0.197740E-01  -0.627203E-01
   0.500000        1.50000       0.551843E-01  -0.884672E-01
   0.500000        2.00000       0.954726E-01  -0.714805E-01
   0.500000        2.50000       0.178113      -0.329765E-01
   0.500000        3.00000       0.176950       0.102328    
   0.500000        3.50000       0.921086E-01   0.118904    
   0.500000        4.00000       0.898103E-02   0.300013E-01
   0.500000        4.50000       0.655541E-02   0.131842E-01
   0.500000        5.00000        0.00000        0.00000    
   0.500000        6.00000        0.00000        0.00000    
   0.500000        6.50000       0.107342E-01  -0.107342E-01
   0.500000        7.00000       0.215037E-01  -0.682052E-01
   0.500000        7.50000       0.601313E-01  -0.961390E-01
   0.500000        8.00000       0.104144      -0.775649E-01
   0.500000        8.50000       0.194350      -0.355559E-01
   0.500000        9.00000       0.193029       0.111989    
   0.500000        9.50000       0.100572       0.130064    
   0.500000        10.0000       0.986063E-02   0.329435E-01
   0.500000        10.5000       0.721729E-02   0.144603E-01
   0.500000        11.0000        0.00000        0.00000    
    1.00000        0.00000        0.00000        0.00000    
    1.00000       0.500000       0.366460E-01  -0.365179E-02
    1.00000        1.00000       0.494622E-01  -0.471831E-01
    1.00000        1.50000       0.790273E-01  -0.604335E-01
    1.00000        2.00000       0.119250      -0.469320E-01
    1.00000        2.50000       0.150190       0.255124E-02
    1.00000        3.00000       0.143197       0.588473E-01
    1.00000        3.50000       0.614207E-01   0.474528E-01
    1.00000        4.00000       0.402132E-01   0.316086E-01
    1.00000        4.50000       0.366301E-01   0.179077E-01
    1.00000        5.00000        0.00000        0.00000    
    1.00000        6.00000        0.00000        0.00000    
    1.00000        6.50000       0.397372E-01  -0.390120E-02
    1.00000        7.00000       0.537183E-01  -0.512226E-01
    1.00000        7.50000       0.860077E-01  -0.655334E-01
    1.00000        8.00000       0.130012      -0.506790E-01
    1.00000        8.50000       0.163845       0.332188E-02
    1.00000        9.00000       0.156286       0.647047E-01
    1.00000        9.50000       0.671387E-01   0.521729E-01
    1.00000        10.0000       0.440860E-01   0.347636E-01
    1.00000        10.5000       0.401866E-01   0.196370E-01
    1.00000        11.0000        0.00000        0.00000    
    1.50000        0.00000        0.00000        0.00000    
    1.50000       0.500000       0.558718E-01  -0.268458E-02
    1.50000        1.00000       0.621499E-01  -0.300310E-01
    1.50000        1.50000       0.834309E-01  -0.361027E-01
    1.50000        2.00000       0.104719      -0.958264E-02
    1.50000        2.50000       0.106318       0.341317E-02
    1.50000        3.00000       0.102673       0.223312E-01
    1.50000        3.50000       0.836011E-01   0.259288E-01
    1.50000        4.00000       0.690331E-01   0.161815E-01
    1.50000        4.50000       0.568613E-01   0.105639E-01
    1.50000        5.00000        0.00000        0.00000    
    1.50000        6.00000        0.00000        0.00000    
    1.50000        6.50000       0.605520E-01  -0.281313E-02
    1.50000        7.00000       0.674060E-01  -0.324796E-01
    1.50000        7.50000       0.907437E-01  -0.388728E-01
    1.50000        8.00000       0.114108      -0.985633E-02
    1.50000        8.50000       0.116006       0.439939E-02
    1.50000        9.00000       0.112183       0.249800E-01
    1.50000        9.50000       0.914864E-01   0.287948E-01
    1.50000        10.0000       0.757172E-01   0.180105E-01
    1.50000        10.5000       0.624371E-01   0.116471E-01
    1.50000        11.0000        0.00000        0.00000    
    2.00000        0.00000        0.00000        0.00000    
    2.00000       0.500000       0.629884E-01  -0.233855E-02
    2.00000        1.00000       0.775931E-01  -0.142175E-01
    2.00000        1.50000       0.886598E-01  -0.158964E-01
    2.00000        2.00000       0.939773E-01  -0.426232E-02
    2.00000        2.50000       0.938391E-01   0.966260E-03
    2.00000        3.00000       0.870984E-01   0.780983E-02
    2.00000        3.50000       0.792139E-01   0.113515E-01
    2.00000        4.00000       0.785040E-01   0.802245E-02
    2.00000        4.50000       0.620693E-01   0.348960E-02
    2.00000        5.00000        0.00000        0.00000    
    2.00000        6.00000        0.00000        0.00000    
    2.00000        6.50000       0.680629E-01  -0.239673E-02
    2.00000        7.00000       0.839877E-01  -0.151275E-01
    2.00000        7.50000       0.962216E-01  -0.166834E-01
    2.00000        8.00000       0.102273      -0.386504E-02
    2.00000        8.50000       0.102320       0.189129E-02
    2.00000        9.00000       0.952493E-01   0.931427E-02
    2.00000        9.50000       0.868413E-01   0.130243E-01
    2.00000        10.0000       0.862937E-01   0.918819E-02
    2.00000        10.5000       0.683588E-01   0.395466E-02
    2.00000        11.0000        0.00000        0.00000    
    2.50000        0.00000        0.00000        0.00000    
    2.50000       0.500000       0.686713E-01  -0.174934E-02
    2.50000        1.00000       0.755474E-01  -0.817501E-02
    2.50000        1.50000       0.813366E-01  -0.916927E-02
    2.50000        2.00000       0.864917E-01  -0.209478E-02
    2.50000        2.50000       0.863518E-01   0.314369E-03
    2.50000        3.00000       0.850183E-01   0.497579E-02
    2.50000        3.50000       0.809761E-01   0.658326E-02
    2.50000        4.00000       0.776215E-01   0.330169E-02
    2.50000        4.50000       0.699876E-01   0.178222E-02
    2.50000        5.00000        0.00000        0.00000    
    2.50000        6.00000        0.00000        0.00000    
    2.50000        6.50000       0.740071E-01  -0.169465E-02
    2.50000        7.00000       0.815091E-01  -0.842669E-02
    2.50000        7.50000       0.880962E-01  -0.907692E-02
    2.50000        8.00000       0.940314E-01  -0.123137E-02
    2.50000        8.50000       0.942264E-01   0.151682E-02
    2.50000        9.00000       0.931351E-01   0.651769E-02
    2.50000        9.50000       0.890072E-01   0.808175E-02
    2.50000        10.0000       0.856157E-01   0.423843E-02
    2.50000        10.5000       0.772831E-01   0.215407E-02
    2.50000        11.0000        0.00000        0.00000    
    3.00000        0.00000        0.00000        0.00000    
    3.00000       0.500000       0.715363E-01  -0.124213E-02
    3.00000        1.00000       0.828256E-01  -0.370811E-02
    3.00000        1.50000       0.828063E-01  -0.391893E-02
    3.00000        2.00000       0.831690E-01  -0.194283E-02
    3.00000        2.50000       0.834701E-01  -0.394593E-03
    3.00000        3.00000       0.821157E-01   0.217356E-02
    3.00000        3.50000       0.798419E-01   0.287610E-02
    3.00000        4.00000       0.823926E-01   0.160903E-02
    3.00000        4.50000       0.715701E-01   0.708869E-03
    3.00000        5.00000        0.00000        0.00000    
    3.00000        6.00000        0.00000        0.00000    
    3.00000        6.50000       0.766541E-01  -0.106728E-02
    3.00000        7.00000       0.889544E-01  -0.332876E-02
    3.00000        7.50000       0.892808E-01  -0.303306E-02
    3.00000        8.00000       0.902009E-01  -0.646708E-03
    3.00000        8.50000       0.909665E-01   0.113222E-02
    3.00000        9.00000       0.900731E-01   0.385369E-02
    3.00000        9.50000       0.880098E-01   0.432940E-02
    3.00000        10.0000       0.912725E-01   0.257537E-02
    3.00000        10.5000       0.794617E-01   0.105137E-02
    3.00000        11.0000        0.00000        0.00000    
    3.50000        0.00000        0.00000        0.00000    
    3.50000       0.500000       0.734099E-01  -0.877921E-03
    3.50000        1.00000       0.800382E-01  -0.214298E-02
    3.50000        1.50000       0.808547E-01  -0.250599E-02
    3.50000        2.00000       0.816999E-01  -0.117614E-02
    3.50000        2.50000       0.816243E-01  -0.642208E-03
    3.50000        3.00000       0.812181E-01   0.881998E-03
    3.50000        3.50000       0.799384E-01   0.137741E-02
    3.50000        4.00000       0.791055E-01   0.495101E-03
    3.50000        4.50000       0.725657E-01   0.336176E-03
    3.50000        5.00000        0.00000        0.00000    
    3.50000        6.00000        0.00000        0.00000    
    3.50000        6.50000       0.782197E-01  -0.547893E-03
    3.50000        7.00000       0.854533E-01  -0.139688E-02
    3.50000        7.50000       0.868959E-01  -0.943619E-03
    3.50000        8.00000       0.884506E-01   0.741766E-03
    3.50000        8.50000       0.890877E-01   0.155782E-02
    3.50000        9.00000       0.893950E-01   0.306281E-02
    3.50000        9.50000       0.885802E-01   0.323121E-02
    3.50000        10.0000       0.882240E-01   0.177614E-02
    3.50000        10.5000       0.810817E-01   0.774057E-03
    3.50000        11.0000        0.00000        0.00000    
    4.00000        0.00000        0.00000        0.00000    
    4.00000       0.500000       0.746160E-01  -0.582578E-03
    4.00000        1.00000       0.850431E-01  -0.125859E-02
    4.00000        1.50000       0.815349E-01  -0.155262E-02
    4.00000        2.00000       0.809256E-01  -0.122700E-02
    4.00000        2.50000       0.809936E-01  -0.918527E-03
    4.00000        3.00000       0.801452E-01  -0.201616E-03
    4.00000        3.50000       0.796982E-01   0.136184E-03
    4.00000        4.00000       0.832249E-01   0.226424E-04
    4.00000        4.50000       0.730232E-01   0.775402E-04
    4.00000        5.00000        0.00000        0.00000    
    4.00000        6.00000        0.00000        0.00000    
    4.00000        6.50000       0.786051E-01  -0.746461E-04
    4.00000        7.00000       0.899471E-01   0.236582E-04
    4.00000        7.50000       0.868215E-01   0.736913E-03
    4.00000        8.00000       0.872058E-01   0.153885E-02
    4.00000        8.50000       0.881696E-01   0.205536E-02
    4.00000        9.00000       0.884258E-01   0.268130E-02
    4.00000        9.50000       0.887846E-01   0.247702E-02
    4.00000        10.0000       0.936072E-01   0.163508E-02
    4.00000        10.5000       0.824701E-01   0.629507E-03
    4.00000        11.0000        0.00000        0.00000    
    4.50000        0.00000        0.00000        0.00000    
    4.50000       0.500000       0.749888E-01  -0.472498E-03
    4.50000        1.00000       0.814212E-01  -0.981939E-03
    4.50000        1.50000       0.809923E-01  -0.150690E-02
    4.50000        2.00000       0.808089E-01  -0.132548E-02
    4.50000        2.50000       0.804596E-01  -0.132298E-02
    4.50000        3.00000       0.799494E-01  -0.849592E-03
    4.50000        3.50000       0.793733E-01  -0.547679E-03
    4.50000        4.00000       0.791759E-01  -0.500118E-03
    4.50000        4.50000       0.728054E-01  -0.990181E-04
    4.50000        5.00000        0.00000        0.00000    
    4.50000        6.00000        0.00000        0.00000    
    4.50000        6.50000       0.780748E-01   0.287987E-03
    4.50000        7.00000       0.850980E-01   0.773535E-03
    4.50000        7.50000       0.857280E-01   0.187738E-02
    4.50000        8.00000       0.867847E-01   0.253604E-02
    4.50000        8.50000       0.878490E-01   0.301371E-02
    4.50000        9.00000       0.887983E-01   0.322033E-02
    4.50000        9.50000       0.893467E-01   0.282017E-02
    4.50000        10.0000       0.902520E-01   0.190787E-02
    4.50000        10.5000       0.832739E-01   0.681594E-03
    4.50000        11.0000        0.00000        0.00000    
    5.00000        0.00000        0.00000        0.00000    
    5.00000       0.500000       0.760225E-01  -0.409596E-03
    5.00000        1.00000       0.861723E-01  -0.100229E-02
    5.00000        1.50000       0.817899E-01  -0.160837E-02
    5.00000        2.00000       0.806853E-01  -0.176402E-02
    5.00000        2.50000       0.804114E-01  -0.179353E-02
    5.00000        3.00000       0.794283E-01  -0.154957E-02
    5.00000        3.50000       0.792851E-01  -0.119321E-02
    5.00000        4.00000       0.827749E-01  -0.844297E-03
    5.00000        4.50000       0.726756E-01  -0.258836E-03
    5.00000        5.00000        0.00000        0.00000    
    5.00000        6.00000        0.00000        0.00000    
    5.00000        6.50000       0.773590E-01   0.657157E-03
    5.00000        7.00000       0.883860E-01   0.166171E-02
    5.00000        7.50000       0.849986E-01   0.303868E-02
    5.00000        8.00000       0.858621E-01   0.375585E-02
    5.00000        8.50000       0.873395E-01   0.410047E-02
    5.00000        9.00000       0.885938E-01   0.405886E-02
    5.00000        9.50000       0.901410E-01   0.333042E-02
    5.00000        10.0000       0.959373E-01   0.228454E-02
    5.00000        10.5000       0.849005E-01   0.772144E-03
    5.00000        11.0000        0.00000        0.00000    
    5.50000        0.00000        0.00000        0.00000    
    5.50000       0.500000       0.763622E-01  -0.506330E-03
    5.50000        1.00000       0.826805E-01  -0.116458E-02
    5.50000        1.50000       0.817069E-01  -0.213140E-02
    5.50000        2.00000       0.809870E-01  -0.233160E-02
    5.50000        2.50000       0.801823E-01  -0.261860E-02
    5.50000        3.00000       0.792427E-01  -0.236807E-02
    5.50000        3.50000       0.785135E-01  -0.197526E-02
    5.50000        4.00000       0.781521E-01  -0.145458E-02
    5.50000        4.50000       0.718252E-01  -0.458867E-03
    5.50000        5.00000        0.00000        0.00000    
    5.50000        6.00000        0.00000        0.00000    
    5.50000        6.50000       0.758903E-01   0.105477E-02
    5.50000        7.00000       0.828149E-01   0.239034E-02
    5.50000        7.50000       0.839179E-01   0.461897E-02
    5.50000        8.00000       0.856159E-01   0.532141E-02
    5.50000        8.50000       0.875810E-01   0.595571E-02
    5.50000        9.00000       0.895233E-01   0.562851E-02
    5.50000        9.50000       0.911166E-01   0.469590E-02
    5.50000        10.0000       0.930044E-01   0.333643E-02
    5.50000        10.5000       0.860982E-01   0.109730E-02
    5.50000        11.0000        0.00000        0.00000    
    6.00000        0.00000        0.00000        0.00000    
    6.00000       0.500000       0.777259E-01  -0.643802E-03
    6.00000        1.00000       0.878605E-01  -0.160786E-02
    6.00000        1.50000       0.829434E-01  -0.277254E-02
    6.00000        2.00000       0.812392E-01  -0.328878E-02
    6.00000        2.50000       0.804425E-01  -0.356763E-02
    6.00000        3.00000       0.788093E-01  -0.341287E-02
    6.00000        3.50000       0.782728E-01  -0.281782E-02
    6.00000        4.00000       0.812033E-01  -0.196850E-02
    6.00000        4.50000       0.711257E-01  -0.678766E-03
    6.00000        5.00000        0.00000        0.00000    
    6.00000        6.00000        0.00000        0.00000    
    6.00000        6.50000       0.736732E-01   0.151777E-02
    6.00000        7.00000       0.846407E-01   0.371887E-02
    6.00000        7.50000       0.820324E-01   0.643384E-02
    6.00000        8.00000       0.844246E-01   0.765683E-02
    6.00000        8.50000       0.870301E-01   0.807248E-02
    6.00000        9.00000       0.898574E-01   0.769088E-02
    6.00000        9.50000       0.926652E-01   0.623659E-02
    6.00000        10.0000       0.997429E-01   0.427909E-02
    6.00000        10.5000       0.887357E-01   0.146572E-02
    6.00000        11.0000        0.00000        0.00000    
    6.50000        0.00000        0.00000        0.00000    
    6.50000       0.500000       0.785008E-01  -0.883442E-03
    6.50000        1.00000       0.848271E-01  -0.205530E-02
    6.50000        1.50000       0.832595E-01  -0.389507E-02
    6.50000        2.00000       0.818806E-01  -0.446495E-02
    6.50000        2.50000       0.802343E-01  -0.521664E-02
    6.50000        3.00000       0.783940E-01  -0.493363E-02
    6.50000        3.50000       0.769826E-01  -0.422918E-02
    6.50000        4.00000       0.759296E-01  -0.310093E-02
    6.50000        4.50000       0.693290E-01  -0.130417E-02
    6.50000        5.00000        0.00000        0.00000    
    6.50000        6.00000        0.00000        0.00000    
    6.50000        6.50000       0.708501E-01   0.224528E-02
    6.50000        7.00000       0.777570E-01   0.499349E-02
    6.50000        7.50000       0.804629E-01   0.959375E-02
    6.50000        8.00000       0.839696E-01   0.107919E-01
    6.50000        8.50000       0.877899E-01   0.117108E-01
    6.50000        9.00000       0.916563E-01   0.109090E-01
    6.50000        9.50000       0.947191E-01   0.897434E-02
    6.50000        10.0000       0.980140E-01   0.642739E-02
    6.50000        10.5000       0.913861E-01   0.242367E-02
    6.50000        11.0000        0.00000        0.00000    
    7.00000        0.00000        0.00000        0.00000    
    7.00000       0.500000       0.807046E-01  -0.117299E-02
    7.00000        1.00000       0.909700E-01  -0.295955E-02
    7.00000        1.50000       0.853655E-01  -0.518333E-02
    7.00000        2.00000       0.827884E-01  -0.629670E-02
    7.00000        2.50000       0.810559E-01  -0.711374E-02
    7.00000        3.00000       0.778262E-01  -0.698732E-02
    7.00000        3.50000       0.762882E-01  -0.584330E-02
    7.00000        4.00000       0.778969E-01  -0.432927E-02
    7.00000        4.50000       0.674004E-01  -0.190626E-02
    7.00000        5.00000        0.00000        0.00000    
    7.00000        6.00000        0.00000        0.00000    
    7.00000        6.50000       0.665810E-01   0.306959E-02
    7.00000        7.00000       0.766105E-01   0.739680E-02
    7.00000        7.50000       0.760441E-01   0.132399E-01
    7.00000        8.00000       0.811368E-01   0.154309E-01
    7.00000        8.50000       0.862716E-01   0.158790E-01
    7.00000        9.00000       0.924496E-01   0.151009E-01
    7.00000        9.50000       0.974293E-01   0.120548E-01
    7.00000        10.0000       0.106968       0.854000E-02
    7.00000        10.5000       0.963277E-01   0.336202E-02
    7.00000        11.0000        0.00000        0.00000    
    7.50000        0.00000        0.00000        0.00000    
    7.50000       0.500000       0.823682E-01  -0.156141E-02
    7.50000        1.00000       0.888297E-01  -0.374063E-02
    7.50000        1.50000       0.864820E-01  -0.709528E-02
    7.50000        2.00000       0.841967E-01  -0.839878E-02
    7.50000        2.50000       0.807900E-01  -0.105293E-01
    7.50000        3.00000       0.770238E-01  -0.101101E-01
    7.50000        3.50000       0.738091E-01  -0.896139E-02
    7.50000        4.00000       0.707922E-01  -0.686432E-02
    7.50000        4.50000       0.651105E-01  -0.184462E-02
    7.50000        5.00000        0.00000        0.00000    
    7.50000        6.00000        0.00000        0.00000    
    7.50000        6.50000       0.609505E-01   0.361388E-02
    7.50000        7.00000       0.674049E-01   0.930887E-02
    7.50000        7.50000       0.730837E-01   0.193892E-01
    7.50000        8.00000       0.799534E-01   0.215059E-01
    7.50000        8.50000       0.877551E-01   0.234192E-01
    7.50000        9.00000       0.956755E-01   0.217041E-01
    7.50000        9.50000       0.101874       0.177457E-01
    7.50000        10.0000       0.108347       0.130288E-01
    7.50000        10.5000       0.100528       0.372157E-02
    7.50000        11.0000        0.00000        0.00000    
    8.00000        0.00000        0.00000        0.00000    
    8.00000       0.500000       0.859038E-01  -0.201019E-02
    8.00000        1.00000       0.966192E-01  -0.518982E-02
    8.00000        1.50000       0.900849E-01  -0.923089E-02
    8.00000        2.00000       0.864989E-01  -0.118471E-01
    8.00000        2.50000       0.831810E-01  -0.143595E-01
    8.00000        3.00000       0.776386E-01  -0.141166E-01
    8.00000        3.50000       0.734175E-01  -0.128072E-01
    8.00000        4.00000       0.678496E-01  -0.995216E-02
    8.00000        4.50000       0.577933E-01  -0.170716E-02
    8.00000        5.00000        0.00000        0.00000    
    8.00000        6.00000        0.00000        0.00000    
    8.00000        6.50000       0.519807E-01   0.474515E-02
    8.00000        7.00000       0.660444E-01   0.145359E-01
    8.00000        7.50000       0.685094E-01   0.264203E-01
    8.00000        8.00000       0.778278E-01   0.303413E-01
    8.00000        8.50000       0.866905E-01   0.317300E-01
    8.00000        9.00000       0.967735E-01   0.293158E-01
    8.00000        9.50000       0.105938       0.243392E-01
    8.00000        10.0000       0.124664       0.176323E-01
    8.00000        10.5000       0.113084       0.397811E-02
    8.00000        11.0000        0.00000        0.00000    
    8.50000        0.00000        0.00000        0.00000    
    8.50000       0.500000       0.889784E-01  -0.248687E-02
    8.50000        1.00000       0.958910E-01  -0.629679E-02
    8.50000        1.50000       0.929729E-01  -0.117328E-01
    8.50000        2.00000       0.900013E-01  -0.148660E-01
    8.50000        2.50000       0.843807E-01  -0.201063E-01
    8.50000        3.00000       0.778265E-01  -0.203211E-01
    8.50000        3.50000       0.663332E-01  -0.241309E-01
    8.50000        4.00000       0.549069E-01  -0.178385E-01
    8.50000        4.50000       0.525644E-01   0.817631E-03
    8.50000        5.00000        0.00000        0.00000    
    8.50000        6.00000        0.00000        0.00000    
    8.50000        6.50000       0.428974E-01   0.102404E-01
    8.50000        7.00000       0.538033E-01   0.224123E-01
    8.50000        7.50000       0.646812E-01   0.365844E-01
    8.50000        8.00000       0.761281E-01   0.403585E-01
    8.50000        8.50000       0.882688E-01   0.433884E-01
    8.50000        9.00000       0.100759       0.406270E-01
    8.50000        9.50000       0.117319       0.402219E-01
    8.50000        10.0000       0.134188       0.288869E-01
    8.50000        10.5000       0.122345       0.190468E-02
    8.50000        11.0000        0.00000        0.00000    
    9.00000        0.00000        0.00000        0.00000    
    9.00000       0.500000       0.941368E-01  -0.300378E-02
    9.00000        1.00000       0.105939      -0.802958E-02
    9.00000        1.50000       0.986146E-01  -0.144059E-01
    9.00000        2.00000       0.948230E-01  -0.196528E-01
    9.00000        2.50000       0.898928E-01  -0.264817E-01
    9.00000        3.00000       0.819568E-01  -0.322059E-01
    9.00000        3.50000       0.712051E-01  -0.362336E-01
    9.00000        4.00000       0.579092E-01  -0.189969E-01
    9.00000        4.50000       0.480596E-01  -0.172902E-02
    9.00000        5.00000        0.00000        0.00000    
    9.00000        6.00000        0.00000        0.00000    
    9.00000        6.50000      -0.690488E-02   0.189670E-01
    9.00000        7.00000       0.198219E-01   0.393776E-01
    9.00000        7.50000       0.440321E-01   0.491213E-01
    9.00000        8.00000       0.672373E-01   0.566798E-01
    9.00000        8.50000       0.840842E-01   0.563644E-01
    9.00000        9.00000       0.100030       0.587367E-01
    9.00000        9.50000       0.118070       0.570788E-01
    9.00000        10.0000       0.146525       0.314889E-01
    9.00000        10.5000       0.133736       0.551897E-02
    9.00000        11.0000        0.00000        0.00000    
    9.50000        0.00000        0.00000        0.00000    
    9.50000       0.500000       0.989153E-01  -0.337868E-02
    9.50000        1.00000       0.106821      -0.917522E-02
    9.50000        1.50000       0.104331      -0.165076E-01
    9.50000        2.00000       0.101935      -0.229586E-01
    9.50000        2.50000       0.966174E-01  -0.321121E-01
    9.50000        3.00000       0.901475E-01  -0.389416E-01
    9.50000        3.50000       0.737201E-01  -0.531838E-01
    9.50000        4.00000       0.510387E-01  -0.432852E-01
    9.50000        4.50000      -0.287791E-01  -0.853396E-01
    9.50000        5.00000        0.00000        0.00000    
    9.50000        6.00000        0.00000        0.00000    
    9.50000        6.50000      -0.263567E-01   0.575532E-01
    9.50000        7.00000       0.105556E-01   0.761844E-01
    9.50000        7.50000       0.407992E-01   0.772360E-01
    9.50000        8.00000       0.672500E-01   0.792811E-01
    9.50000        8.50000       0.831280E-01   0.720726E-01
    9.50000        9.00000       0.983850E-01   0.732126E-01
    9.50000        9.50000       0.120898       0.798755E-01
    9.50000        10.0000       0.150679       0.616923E-01
    9.50000        10.5000       0.227546       0.102070    
    9.50000        11.0000        0.00000        0.00000    
    10.0000        0.00000        0.00000        0.00000    
    10.0000       0.500000       0.105376      -0.372327E-02
    10.0000        1.00000       0.119139      -0.103292E-01
    10.0000        1.50000       0.111809      -0.185014E-01
    10.0000        2.00000       0.109502      -0.269327E-01
    10.0000        2.50000       0.105940      -0.377074E-01
    10.0000        3.00000       0.102435      -0.486746E-01
    10.0000        3.50000       0.873350E-01  -0.739012E-01
    10.0000        4.00000       0.561241E-01  -0.126224    
    10.0000        4.50000      -0.186211E-02  -0.170888    
    10.0000        5.00000        0.00000        0.00000    
    10.0000        6.00000        0.00000        0.00000    
    10.0000        6.50000      -0.326214E-02   0.100839    
    10.0000        7.00000       0.348001E-01   0.122993    
    10.0000        7.50000       0.739253E-01   0.104520    
    10.0000        8.00000       0.814495E-01   0.918882E-01
    10.0000        8.50000       0.900062E-01   0.862789E-01
    10.0000        9.00000       0.942916E-01   0.868062E-01
    10.0000        9.50000       0.115304       0.106057    
    10.0000        10.0000       0.163699       0.158472    
    10.0000        10.5000       0.205240       0.203776    
    10.0000        11.0000        0.00000        0.00000    
    10.5000        0.00000        0.00000        0.00000    
    10.5000       0.500000       0.111423      -0.374625E-02
    10.5000        1.00000       0.120859      -0.109716E-01
    10.5000        1.50000       0.120204      -0.186850E-01
    10.5000        2.00000       0.120142      -0.282146E-01
    10.5000        2.50000       0.119591      -0.390176E-01
    10.5000        3.00000       0.119068      -0.556839E-01
    10.5000        3.50000       0.116730      -0.776955E-01
    10.5000        4.00000       0.118257      -0.133061    
    10.5000        4.50000       0.144354      -0.170779    
    10.5000        5.00000        0.00000      -0.110000    
    10.5000        6.00000        0.00000       0.120000    
    10.5000        6.50000       0.421263E-01   0.192459    
    10.5000        7.00000       0.878658E-01   0.157738    
    10.5000        7.50000       0.883188E-01   0.106578    
    10.5000        8.00000       0.853658E-01   0.935253E-01
    10.5000        8.50000       0.855702E-01   0.879299E-01
    10.5000        9.00000       0.854243E-01   0.956246E-01
    10.5000        9.50000       0.882227E-01   0.110639    
    10.5000        10.0000       0.875205E-01   0.165866    
    10.5000        10.5000       0.406288E-01   0.202286    
    10.5000        11.0000        0.00000       0.128000    
    11.0000        0.00000        0.00000        0.00000    
    11.0000       0.500000       0.118104      -0.365542E-02
    11.0000        1.00000       0.134347      -0.105734E-01
    11.0000        1.50000       0.128076      -0.184136E-01
    11.0000        2.00000       0.128879      -0.276788E-01
    11.0000        2.50000       0.129936      -0.388973E-01